LAMMPS data file via write_data, version 2 Jul 2021, timestep = 9

1594 atoms
2 atom types

-30 30 xlo xhi
-30 30 ylo yhi
-0.5 0.5 zlo zhi

Masses

1 1
2 1

Pair Coeffs # lj/cut

1 1 1
2 0.5 3

Atoms # atomic

1 1 -28.900219934264484 -29.284013385143425 0 0 0 0
2 1 -27.782256506555083 -28.975538438370346 0 0 0 0
3 1 -26.56106314548453 -29.71891180632597 0 0 0 0
4 1 -25.425462429770004 -29.608810955946012 0 0 0 0
5 1 -24.515178566570075 -28.930987560312467 0 0 0 0
6 1 -21.77673746143092 -29.47108051187682 0 0 0 0
7 1 -22.404659631295832 -28.564747278221763 0 0 0 0
8 1 -20.668148387794137 -29.581480564989253 0 0 0 0
9 1 -19.575926102070536 -29.738275671992962 0 0 0 0
10 1 -18.492403453108146 -29.58474682785974 0 0 0 0
11 1 -17.65038270217712 -28.873129517071654 0 0 0 0
12 1 -16.396283403336867 -29.569895743606814 0 0 0 0
13 1 -14.530354894306248 -28.892510650635227 0 0 0 0
14 1 -15.650555115960028 -28.709270599023373 0 0 0 0
15 1 -13.884184057677894 -29.854255369144965 0 0 0 0
16 1 -13.339068817160687 -28.856255931388052 0 0 0 0
17 1 -12.756019160721973 -29.878984617643084 0 0 0 0
18 1 -11.58850729937883 -29.877355352467365 0 0 0 0
19 1 -10.43681960555953 -29.879448300470038 0 0 0 0
20 1 -6.666506991747351 -28.58674616359735 0 0 0 0
21 1 -4.50077536859177 -28.922633177148796 0 0 0 0
22 1 -5.618553529422915 -29.043192399894636 0 0 0 0
23 1 -0.7442608410048974 -29.430765038199414 0 0 0 0
24 1 1.0531518650425726 -29.345181715011822 0 0 0 0
25 1 1.902302524413143 -28.581782666558244 0 0 0 0
26 1 3.427636491568966 -29.551799075227702 0 0 0 0
27 1 6.296817593800832 -29.34993355651439 0 0 0 0
28 1 7.394711727782646 -29.53748941694141 0 0 0 0
29 1 8.09645877266206 -28.67153580053894 0 0 0 0
30 1 9.91198311693194 -29.935015708344693 0 0 1 0
31 1 11.21407865738918 -28.655588654050433 0 0 0 0
32 1 11.048118556623592 -29.759478970268578 0 0 0 0
33 1 12.457955866155382 -29.084183257601577 0 0 0 0
34 1 16.238613386433638 -29.108616659919207 0 0 0 0
35 1 18.01338158936239 -28.631323996743408 0 0 0 0
36 1 17.275038593163362 -29.519395188464777 0 0 0 0
37 1 20.009060795000693 -28.632278113218867 0 0 0 0
38 1 18.997207892542228 -29.106175995705236 0 0 0 0
39 1 21.018360330919954 -29.114603038287214 0 0 0 0
40 1 23.125779347544327 -29.965679383424128 0 0 0 0
41 1 24.19298254287641 -29.660370613841792 0 0 0 0
42 1 25.25805709112172 -29.323224857163307 0 0 0 0
43 1 26.94021828720368 -29.386677000517878 0 0 0 0
44 1 28.01717852497146 -29.094713267276315 0 0 0 0
45 1 29.045761721824455 -29.737139503671987 0 0 0 0
46 1 28.994887268283925 -28.590581088952185 0 0 0 0
47 1 -29.47620788659146 -28.290577983705045 0 0 0 0
48 1 -26.96359135566517 -28.0462067232413 0 0 0 0
49 1 -25.33094361829947 -28.181605275228133 0 0 0 0
50 1 -23.510073571582605 -28.473077080010814 0 0 0 0
51 1 -23.988959202967322 -27.46031093890672 0 0 0 0
52 1 -22.869886890440362 -27.54767658156159 0 0 0 0
53 1 -17.051447069957028 -27.198160108818872 0 0 0 0
54 1 -15.054129873349602 -27.751990332808337 0 0 0 0
55 1 -13.976204922804499 -27.942480985463845 0 0 0 0
56 1 -13.18060784759762 -27.208545015059116 0 0 0 0
57 1 -12.465139989414078 -28.04634789982361 0 0 0 0
58 1 -11.474515645592225 -27.448039940348508 0 0 0 0
59 1 -8.80933909142187 -27.92295833639229 0 0 0 0
60 1 -7.705494768706763 -27.865013458767866 0 0 0 0
61 1 -6.697936765904497 -27.477578391432527 0 0 0 0
62 1 -5.720175284370615 -27.940789518707287 0 0 0 0
63 1 -4.638753901972691 -27.81865377519631 0 0 0 0
64 1 -3.6057376196485342 -28.225943282180825 0 0 0 0
65 1 -2.4907797002230434 -28.045358402672193 0 0 0 0
66 1 -1.3493984647610624 -27.819712863040046 0 0 0 0
67 1 3.4443849669681548 -28.24181042960218 0 0 0 0
68 1 4.333775455328117 -27.558510366023796 0 0 0 0
69 1 5.443966154714024 -27.586785031999025 0 0 0 0
70 1 6.3790208235569095 -28.200765298561834 0 0 0 0
71 1 7.407267335234686 -27.81290758686251 0 0 0 0
72 1 12.655998638332221 -27.944250466574893 0 0 0 0
73 1 11.59618418490198 -27.599586181717555 0 0 0 0
74 1 13.75907458250258 -27.98885559696404 0 0 0 0
75 1 14.850823761505994 -28.00623594812239 0 0 0 0
76 1 15.933567168097245 -28.012912215496584 0 0 0 0
77 1 16.988359058931223 -28.27622504999132 0 0 0 0
78 1 19.22671188248334 -27.832414794516126 0 0 0 0
79 1 21.270918710146017 -28.011082214965633 0 0 0 0
80 1 22.382712260925175 -28.183310785495166 0 0 0 0
81 1 24.400174291475558 -28.558827090240218 0 0 0 0
82 1 26.742216636446763 -28.016856663079245 0 0 0 0
83 1 27.86370590931399 -27.967619223446746 0 0 0 0
84 1 29.51354189737844 -27.601586093803128 0 0 0 0
85 1 -28.53512874276715 -26.91946608492091 0 0 0 0
86 1 -26.173286582213134 -27.06665660996476 0 0 0 0
87 1 -25.043123599356782 -27.087780881124875 0 0 0 0
88 1 -23.843895474992518 -26.327186925872443 0 0 0 0
89 1 -22.021987041937614 -26.802761621983596 0 0 0 0
90 1 -20.449227454354833 -26.782546338224122 0 0 0 0
91 1 -18.125510546329668 -26.849023803891622 0 0 0 0
92 1 -18.506686632333434 -25.78856558461744 0 0 0 0
93 1 -15.315531401210015 -26.664548335134096 0 0 0 0
94 1 -14.228653131094358 -26.83935970395004 0 0 0 0
95 1 -13.335834294304297 -26.11588515737706 0 0 0 0
96 1 -12.246691954219077 -26.64874207022011 0 0 0 0
97 1 -11.12943233868274 -26.363730044646434 0 0 0 0
98 1 -10.017727003009698 -26.51997594021628 0 0 0 0
99 1 -8.99915760097916 -26.038874145945194 0 0 0 0
100 1 -8.208970579816949 -26.8607676265592 0 0 0 0
101 1 -5.9336573710157685 -26.687977599202913 0 0 0 0
102 1 -7.091110034184169 -26.453776248632764 0 0 0 0
103 1 -3.791640619684644 -27.10995317900931 0 0 0 0
104 1 -2.974866370418212 -26.36775860292983 0 0 0 0
105 1 -1.985560224602058 -25.86641867391196 0 0 0 0
106 1 -0.879772735707363 -25.95684296519995 0 0 0 0
107 1 1.660306100099984 -26.21315301489675 0 0 0 0
108 1 3.552640521522674 -26.777889856298334 0 0 0 0
109 1 4.764126057872788 -26.531170995660037 0 0 0 0
110 1 5.87433865127047 -26.207052816400314 0 0 0 0
111 1 6.69156865903739 -26.970806772538378 0 0 0 0
112 1 7.893788176778089 -26.82345380155399 0 0 0 0
113 1 7.213636574072343 -25.950005912094458 0 0 0 0
114 1 8.802229910802641 -26.17460115727376 0 0 0 0
115 1 9.561060439519785 -27.0068696834873 0 0 0 0
116 1 11.326876134577903 -25.920741884729463 0 0 0 0
117 1 13.40706697402197 -26.93938664896938 0 0 0 0
118 1 14.022644913248463 -25.963295391986073 0 0 0 0
119 1 14.557069991698873 -26.93804048240899 0 0 0 0
120 1 15.68336684732 -26.91560635242855 0 0 0 0
121 1 16.13479485300106 -25.868968860779106 0 0 0 0
122 1 19.92411871716349 -26.824811413963435 0 0 0 0
123 1 19.23179168554752 -25.92391277422174 0 0 0 0
124 1 21.068511364120077 -26.90153111383576 0 0 0 0
125 1 20.343050108484373 -25.769256311163968 0 0 0 0
126 1 22.244510585463473 -27.069307936144774 0 0 0 0
127 1 26.078172861280976 -27.1031511347863 0 0 0 0
128 1 27.0457671026941 -25.8043352483599 0 0 0 0
129 1 27.23789024014555 -26.964273879477343 0 0 0 0
130 1 28.128985519516704 -26.019024836977803 0 0 0 0
131 1 28.50916973350427 -27.054672502701568 0 0 0 0
132 1 29.241933458319778 -26.080036137865175 0 0 0 0
133 1 -28.727552529497313 -25.56768227314954 0 0 0 0
134 1 -26.703697025208548 -25.00865571727875 0 0 0 0
135 1 -25.787707977402675 -25.70192726577045 0 0 0 0
136 1 -25.6986657003796 -24.520510561374895 0 0 0 0
137 1 -24.790400344339645 -25.196060813576082 0 0 0 0
138 1 -22.97051539437637 -25.59133015196631 0 0 0 0
139 1 -23.104483916557456 -24.491141893456064 0 0 0 0
140 1 -21.992198813064164 -25.01597598028791 0 0 0 0
141 1 -20.791147163468874 -25.537853513519543 0 0 0 0
142 1 -20.12829450516423 -24.626982718336244 0 0 0 0
143 1 -19.629107923561094 -25.614686242953773 0 0 0 0
144 1 -15.821424146136353 -25.695014182468473 0 0 0 0
145 1 -15.786639325553379 -24.607994123744856 0 0 0 0
146 1 -14.716774875438025 -25.320187711135752 0 0 0 0
147 1 -13.788923055513187 -24.525132779017355 0 0 0 0
148 1 -12.876055046319681 -25.106309817283716 0 0 0 0
149 1 -11.948901657279256 -24.46598274681417 0 0 0 0
150 1 -11.919108934495116 -25.6015418061478 0 0 0 0
151 1 -10.971877308469631 -25.052422625251175 0 0 0 0
152 1 -6.499212385616291 -24.348910207434113 0 0 0 0
153 1 -6.307298103036305 -25.564742140205997 0 0 0 0
154 1 -4.844860914593359 -24.897055338530894 0 0 0 0
155 1 -3.75994544463719 -25.528417832996272 0 0 0 0
156 1 -1.4521360647936499 -24.88377671413881 0 0 0 0
157 1 -0.277290814789934 -25.02694898363094 0 0 0 0
158 1 0.8203142224011839 -25.452798140338647 0 0 0 0
159 1 1.5755219211321956 -24.606133894323907 0 0 0 0
160 1 2.4013578558209963 -25.353837546665236 0 0 0 0
161 1 8.132000422063129 -25.278197429953355 0 0 0 0
162 1 11.411018527233658 -24.79620949304389 0 0 0 0
163 1 12.520989790879469 -24.853342920549917 0 0 0 0
164 1 15.070133865282495 -25.531201508364784 0 0 0 0
165 1 16.762247866179028 -24.930113208115248 0 0 0 0
166 1 25.315037497103972 -24.669222757919673 0 0 0 0
167 1 26.420485981314357 -24.45156523999028 0 0 0 0
168 1 28.31858132375656 -24.914400277963153 0 0 0 0
169 1 29.43013794882886 -24.66275081460525 0 0 0 0
170 1 -29.502592283833305 -24.210128307958943 0 0 0 0
171 1 -28.635379812963357 -23.176421114815213 0 0 0 0
172 1 -29.775752119625952 -23.124677315871708 0 0 0 0
173 1 -27.62369418871095 -23.85994148959892 0 0 0 0
174 1 -26.511380209742175 -23.699931539801543 0 0 0 0
175 1 -24.813364166333812 -23.41384130061552 0 0 0 0
176 1 -24.165729037036805 -24.282254090478258 0 0 0 0
177 1 -23.510910913469456 -23.322093460152264 0 0 0 0
178 1 -22.211553693742186 -23.90916922434812 0 0 0 0
179 1 -21.425745837967366 -23.17399533609073 0 0 0 0
180 1 -21.16032826351579 -24.262751295495942 0 0 0 0
181 1 -19.62680916421905 -23.640761805684 0 0 0 0
182 1 -18.447957533602906 -23.096371610553582 0 0 0 0
183 1 -16.581628918405574 -23.84686672557115 0 0 0 0
184 1 -14.802704119044638 -24.185905764438562 0 0 0 0
185 1 -15.386983906675438 -23.25708150572413 0 0 0 0
186 1 -14.157556579703167 -23.288768706333077 0 0 0 0
187 1 -12.378066229997385 -22.8880432149716 0 0 0 0
188 1 -10.42800091773486 -24.071378595611232 0 0 0 0
189 1 -7.577596619952922 -23.67815188852528 0 0 0 0
190 1 -4.349205073029101 -23.868091956606666 0 0 0 0
191 1 -5.6219328229325765 -22.998798879459695 0 0 0 0
192 1 -2.4871169511955222 -23.72947860908807 0 0 0 0
193 1 2.027228913117373 -23.55182413969571 0 0 0 0
194 1 3.1240509853111234 -24.112678841564726 0 0 0 0
195 1 3.1860901660913425 -22.971481546503593 0 0 0 0
196 1 6.656902059967262 -24.23561415824227 0 0 0 0
197 1 9.068188980791003 -23.177811006636738 0 0 0 0
198 1 11.970263242667198 -23.82055058360495 0 0 0 0
199 1 13.450986946061574 -24.224669395367815 0 0 0 0
200 1 14.330275102205428 -23.498224838765147 0 0 0 0
201 1 15.996866876504901 -24.10942131752739 0 0 0 0
202 1 17.935219655834217 -22.991218468485496 0 0 0 0
203 1 18.86147358845518 -23.610816984785515 0 0 0 0
204 1 19.778540206679494 -22.92515780598432 0 0 0 0
205 1 22.281592595620676 -23.742432047570883 0 0 0 0
206 1 23.083669610055736 -22.971733346375565 0 0 0 0
207 1 23.371530685928 -24.05977340992628 0 0 0 0
208 1 25.604722329703023 -23.594700557588858 0 0 0 0
209 1 24.493822680618184 -23.84700161523862 0 0 0 0
210 1 26.69357428668346 -23.368888787305007 0 0 0 0
211 1 -29.286602555670314 -22.128512009692653 0 0 0 0
212 1 -27.167004955324174 -22.64638507523027 0 0 0 0
213 1 -28.181821712755127 -22.124393882344926 0 0 0 0
214 1 -24.333064678631903 -22.426249310382936 0 0 0 0
215 1 -23.280446261684112 -22.16121936097965 0 0 0 0
216 1 -22.446677420854577 -22.826473905169212 0 0 0 0
262 1 -22.192783599722066 -21.440236411251806 0 0 0 0
217 1 -20.158108754135167 -21.717317058354613 0 0 0 0
218 1 -20.429565509676525 -22.81738799632458 0 0 0 0
219 1 -21.258105247288483 -22.062060253359764 0 0 0 0
220 1 -19.398572186145028 -22.576249865476502 0 0 0 0
221 1 -19.04434891322469 -21.579553337105715 0 0 0 0
222 1 -16.391837342738167 -21.902592786312937 0 0 0 0
223 1 -13.395133358981113 -22.415143458222904 0 0 0 0
224 1 -12.200542300179261 -21.75829225554647 0 0 0 0
225 1 -8.233114088047401 -22.74266264842603 0 0 0 0
226 1 -7.933876460238152 -21.65326708567065 0 0 0 0
227 1 -7.138422791747381 -22.562832131591694 0 0 0 0
228 1 -6.812898413161516 -21.4907796611281 0 0 0 0
229 1 -5.713170416824835 -21.875242629734235 0 0 0 0
230 1 -4.5244757098659045 -21.598680686795696 0 0 0 0
231 1 -4.525941940373218 -22.73343664670578 0 0 0 0
232 1 -3.3785366635192036 -21.602618697151346 0 0 0 0
233 1 -1.4877169930430123 -21.97369063671984 0 0 0 0
234 1 -0.4185772966475488 -22.325820035132203 0 0 0 0
235 1 2.061924811153962 -21.549696225687125 0 0 0 0
236 1 1.5123565848870726 -22.530251264644345 0 0 0 0
237 1 4.236296735287859 -22.02814158505978 0 0 0 0
238 1 3.1467769612967125 -21.830430906091813 0 0 0 0
239 1 5.880522692962912 -22.824927827854907 0 0 0 0
240 1 7.086085750318471 -22.656488559712795 0 0 0 0
241 1 7.402884325797474 -21.565532664427757 0 0 0 0
242 1 8.224661453516104 -22.408610091200668 0 0 0 0
243 1 9.281660091532055 -21.98001784273406 0 0 0 0
244 1 11.041921163622996 -22.677863015439968 0 0 0 0
245 1 10.399339737474124 -21.72933521918737 0 0 0 0
246 1 14.494343624436064 -22.033959033929975 0 0 0 0
247 1 18.83938184600343 -22.342858171254523 0 0 0 0
248 1 19.807574453918445 -21.76525316915399 0 0 0 0
249 1 20.788064203876814 -22.362586409449378 0 0 0 0
250 1 21.955100286157524 -22.66069575734157 0 0 0 0
251 1 25.334069952604054 -22.02279116526604 0 0 0 0
252 1 26.406051381460326 -22.29961234693874 0 0 0 0
253 1 27.490825027819568 -22.578672405743166 0 0 0 0
254 1 29.754486104589837 -21.524613661037566 0 -1 0 0
255 1 28.6032898415697 -22.79591221400113 0 0 0 0
256 1 -28.847580539947312 -21.09109328417765 0 0 0 0
257 1 -29.646036736007474 -20.226363251103212 0 0 0 0
258 1 -27.696848860035047 -21.113457433038487 0 0 0 0
259 1 -26.57289715659662 -21.07591437602478 0 0 0 0
260 1 -23.231609175641417 -21.074679416006035 0 0 0 0
261 1 -23.920875053677744 -20.22240125501717 0 0 0 0
263 1 -22.481112084442074 -20.2627907886671 0 0 0 0
264 1 -19.272243447197617 -20.528562833279704 0 0 0 0
265 1 -17.97125326687012 -21.42513217151967 0 0 0 0
266 1 -15.90816289696466 -20.890982687634885 0 0 0 0
267 1 -16.994509989181516 -20.933435470064033 0 0 0 0
268 1 -14.879054924441913 -21.284175198671196 0 0 0 0
269 1 -15.082167640777103 -20.150474118055552 0 0 0 0
270 1 -14.044554728434585 -20.53519276278813 0 0 0 0
271 1 -12.973424804711561 -20.922675997734 0 0 0 0
272 1 -12.132444768468545 -20.164241621093915 0 0 0 0
273 1 -8.772405204740952 -20.518246470815054 0 0 0 0
274 1 -3.803993820181782 -20.571880508798074 0 0 0 0
275 1 -1.289168109832138 -20.80131905224811 0 0 0 0
276 1 4.056965972352995 -20.901810206109914 0 0 0 0
277 1 4.87918449437234 -20.097229165795884 0 0 0 0
278 1 5.733735960010097 -20.84067574917067 0 0 0 0
279 1 7.133673142686141 -20.44132910632319 0 0 0 0
280 1 8.807727420533466 -20.861152257551513 0 0 0 0
281 1 15.584608317626385 -20.611657391592964 0 0 0 0
282 1 14.50239893325945 -20.88818298598165 0 0 0 0
283 1 17.997877295873423 -20.326819710018263 0 0 0 0
284 1 18.69689224028078 -21.226235862171865 0 0 0 0
285 1 19.636972548783376 -20.632014523392993 0 0 0 0
286 1 20.946909575012334 -20.936845615353064 0 0 0 0
287 1 22.020827284944673 -20.31920552103473 0 0 0 0
288 1 23.825650191818625 -20.736064024026582 0 0 0 0
289 1 26.18303959395894 -21.20774533625428 0 0 0 0
290 1 29.211044226558734 -20.187439403328668 0 0 0 0
291 1 -29.396627091259063 -19.087213784504474 0 0 0 0
292 1 -28.27025927106932 -19.18380537932514 0 0 0 0
293 1 -27.27651973551531 -18.658145074192866 0 0 0 0
294 1 -26.791089005015447 -19.95059842072739 0 0 0 0
295 1 -24.85201863448918 -18.959776598687533 0 0 0 0
296 1 -23.198607849141293 -19.384982311666892 0 0 0 0
297 1 -21.138631186835795 -19.502599836904363 0 0 0 0
298 1 -20.33230767277227 -18.681299343399196 0 0 0 0
299 1 -20.053304713310006 -19.757591098852583 0 0 0 0
300 1 -17.228939683816883 -19.837732914278643 0 0 0 0
301 1 -16.6190743925916 -18.816363243250958 0 0 0 0
302 1 -16.12812667644535 -19.804624673897887 0 0 0 0
303 1 -15.319603204387818 -19.02244775935053 0 0 0 0
304 1 -14.255010565563516 -19.40133251920981 0 0 0 0
305 1 -13.205147232134728 -19.822251002963803 0 0 0 0
306 1 -12.61649181633675 -18.892594986648287 0 0 0 0
307 1 -8.207700166994945 -19.487930534872078 0 0 0 0
308 1 -7.437410716620393 -18.668268607226718 0 0 0 0
309 1 -6.378578800897155 -19.13373451607498 0 0 0 0
310 1 -3.6014077061700034 -19.45848991022672 0 0 0 0
311 1 -1.2765308077198514 -18.62695345315771 0 0 0 0
312 1 1.047523365802653 -19.743452777770994 0 0 0 0
313 1 3.8000577486481277 -19.780472636147046 0 0 0 0
314 1 5.963169296184868 -19.748332993731296 0 0 0 0
315 1 8.154211927601269 -19.91566699198583 0 0 0 0
316 1 8.421297691243298 -18.824271027131303 0 0 0 0
317 1 9.2607760888727 -19.709162621547037 0 0 0 0
318 1 10.447174125633572 -19.113424608275714 0 0 0 0
319 1 11.514400063269358 -19.553617740688612 0 0 0 0
320 1 13.332423115864097 -19.704743200528018 0 0 0 0
321 1 13.504475446195372 -18.56809804458343 0 0 0 0
322 1 14.48381191114225 -19.759011433788597 0 0 0 0
323 1 15.52387100364354 -19.29136311063922 0 0 0 0
324 1 14.619812955677126 -18.647675751899087 0 0 0 0
325 1 18.904643545534803 -19.640696343005626 0 0 0 0
326 1 20.299925112764768 -18.731851086695265 0 0 0 0
327 1 21.692696803419725 -19.24152388579511 0 0 0 0
328 1 22.82742756593885 -19.466624090965333 0 0 0 0
329 1 23.957326118963984 -19.589338429471017 0 0 0 0
330 1 24.621926776176057 -18.646935870962928 0 0 0 0
331 1 27.60221660964026 -19.58126376962036 0 0 0 0
332 1 28.65399854757218 -19.170594170499974 0 0 0 0
333 1 -29.523696704876485 -17.932829320602977 0 0 0 0
334 1 -27.560894450954383 -17.568403023879853 0 0 0 0
335 1 -26.47172215721469 -17.85983401506279 0 0 0 0
336 1 -22.953024398621636 -17.556629735617772 0 0 0 0
337 1 -23.81735601019379 -18.4576463917686 0 0 0 0
338 1 -24.044975459613717 -17.38478048209651 0 0 0 0
339 1 -20.14519976511118 -17.557140910589702 0 0 0 0
340 1 -19.276120408371092 -18.305506527805736 0 0 0 0
341 1 -18.650026250379547 -17.363137734366994 0 0 0 0
342 1 -15.814896925865249 -18.020725967474963 0 0 0 0
343 1 -14.687400765150057 -18.009408176535274 0 0 0 0
344 1 -13.733396061984918 -17.35698093195567 0 0 0 0
345 1 -12.696076325444718 -17.758552662411997 0 0 0 0
346 1 -11.71016104354264 -18.258058781040187 0 0 0 0
347 1 -10.787832198113774 -17.67567995697515 0 0 0 0
348 1 -9.81244248076853 -18.30058567921763 0 0 0 0
349 1 -8.649414594001465 -18.443683691312135 0 0 0 0
350 1 -9.804480343715186 -17.184248377982478 0 0 0 0
351 1 -7.853864784568602 -17.637245955606403 0 0 0 0
352 1 -6.5167732352229155 -18.036279022479878 0 0 0 0
353 1 -5.760204732901928 -17.244280411830086 0 0 0 0
354 1 -5.192369254955218 -18.183466453232967 0 0 0 0
355 1 -4.369100700457631 -17.392225515400394 0 0 0 0
356 1 -4.104689421238186 -18.46753957547011 0 0 0 0
357 1 -1.4978549829797916 -17.535928204548608 0 0 0 0
358 1 -0.35050681775146997 -17.439711677581737 0 0 0 0
359 1 2.995438579679499 -18.46247791065811 0 0 0 0
360 1 5.031480619157277 -18.37702388602111 0 0 0 0
361 1 5.072421593124621 -17.22790576219656 0 0 0 0
362 1 7.2162517242536435 -17.409854454218806 0 0 0 0
363 1 9.343093865289694 -17.45778723156358 0 0 0 0
364 1 9.478343553536144 -18.57581951960714 0 0 0 0
365 1 10.380303800655089 -17.97421387651943 0 0 0 0
366 1 11.362587240655019 -18.47359232855585 0 0 0 0
367 1 11.316155416934082 -17.39038309702394 0 0 0 0
368 1 12.423097220057347 -18.20944850400996 0 0 0 0
369 1 13.19942912249872 -17.453867253438194 0 0 0 0
370 1 14.244872511282875 -17.623246649621326 0 0 0 0
371 1 15.313773743312794 -17.478806170576892 0 0 0 0
372 1 16.41371088784068 -17.4796652810646 0 0 0 0
373 1 17.497827438594754 -17.722268971995415 0 0 0 0
374 1 18.559698462251397 -17.355831560377773 0 0 0 0
375 1 19.227749243408205 -18.341424170137934 0 0 0 0
376 1 20.09797285345568 -17.608401143236232 0 0 0 0
377 1 21.264440229696238 -18.16829282533665 0 0 0 0
378 1 22.034163394471012 -17.381448307588162 0 0 0 0
379 1 22.422241583903826 -18.408446379987762 0 0 0 0
380 1 23.52233621589913 -18.54001348558818 0 0 0 0
381 1 24.223098617572784 -17.582532298876885 0 0 0 0
382 1 23.12215096333953 -17.482657272852062 0 0 0 0
383 1 26.677321163502995 -17.292508104673907 0 0 0 0
384 1 27.766171555094036 -17.622561215084215 0 0 0 0
385 1 28.816212714756773 -18.040445135323875 0 0 0 0
386 1 -29.15488063637127 -16.377629242183605 0 0 0 0
387 1 -26.94787397800239 -16.639168564268623 0 0 0 0
388 1 -25.869862135267546 -16.892418161058497 0 0 0 0
389 1 -25.51289023743944 -15.784095423112502 0 0 0 0
390 1 -24.779168591874594 -16.587922479551125 0 0 0 0
391 1 -23.37900290610366 -16.494289012683407 0 0 0 0
392 1 -22.523602656961756 -15.782439206836898 0 0 0 0
393 1 -21.819800118163077 -16.658438965842517 0 0 0 0
394 1 -20.666629726543583 -16.48281445122959 0 0 0 0
395 1 -19.530396769735283 -16.617554009508865 0 0 0 0
396 1 -17.527399364964253 -17.035962109674355 0 0 0 0
397 1 -16.571703022095562 -16.358461071739193 0 0 0 0
398 1 -14.715094953634958 -16.858269928037075 0 0 0 0
399 1 -15.064453386010737 -15.789914063414468 0 0 0 0
400 1 -12.870119892545496 -16.644685247194058 0 0 0 0
401 1 -13.891305154036445 -16.09951788447453 0 0 0 0
402 1 -11.784493087380094 -17.102861745535197 0 0 0 0
403 1 -10.75835654309522 -16.56221010845247 0 0 0 0
404 1 -9.560057472907564 -16.110529946613738 0 0 0 0
405 1 -7.973123212185487 -16.511336838298316 0 0 0 0
406 1 -6.933378775765715 -16.986733603503456 0 0 0 0
407 1 -7.119252996045625 -15.798213955931868 0 0 0 0
408 1 -6.113809110816007 -16.216096961546373 0 0 0 0
409 1 -3.9736306189793607 -16.347508754921517 0 0 0 0
410 1 0.5926496437578591 -16.446686067994445 0 0 0 0
411 1 2.1923819800742117 -16.786837459729654 0 0 0 0
412 1 3.2212155161440807 -16.380448769945563 0 0 0 0
413 1 4.32313321223132 -16.409198691121414 0 0 0 0
414 1 7.45308078141434 -16.189135155427362 0 0 0 0
415 1 8.351194724439482 -16.863602080620495 0 0 0 0
416 1 8.458397283816081 -15.731869272223149 0 0 0 0
417 1 9.371538745862614 -16.35237105997387 0 0 0 0
418 1 10.335676830741816 -16.881709753805513 0 0 0 0
419 1 11.351079653966327 -16.297574958869582 0 0 0 0
420 1 10.38848637740171 -15.793278608761163 0 0 0 0
421 1 12.281475610458193 -16.902660017454505 0 0 0 0
422 1 12.350773981190601 -15.808620419178789 0 0 0 0
423 1 13.858091179431764 -16.547458370851103 0 0 0 0
424 1 15.860303342210145 -16.497862908611303 0 0 0 0
425 1 17.72740257275471 -16.42015693993365 0 0 0 0
426 1 19.375252581727572 -16.560370992402703 0 0 0 0
427 1 20.373588553217807 -16.002077788728087 0 0 0 0
428 1 21.015937785765278 -16.962930971602315 0 0 0 0
429 1 22.09627331084197 -16.288235526363483 0 0 0 0
430 1 23.274050711645714 -16.333609408357386 0 0 0 0
431 1 24.79412223101173 -16.355964514576936 0 0 0 0
432 1 25.84096471098509 -15.900340341136685 0 0 0 0
433 1 26.95073043304575 -16.20802704994176 0 0 0 0
434 1 28.257792945422917 -16.58056308229633 0 0 0 0
435 1 29.385943784638407 -17.073482780031917 0 0 0 0
436 1 -28.84883097955065 -15.281422059545827 0 0 0 0
437 1 -29.95913545632574 -14.809575998999637 0 1 0 0
438 1 -26.599134778575777 -15.574743010610836 0 0 0 0
439 1 -26.88796890561386 -14.482246645448026 0 0 0 0
440 1 -24.128914966862578 -15.661669274360227 0 0 0 0
441 1 -23.24114448209632 -14.927260434543124 0 0 0 0
442 1 -22.124072832851354 -14.735004416685051 0 0 0 0
443 1 -20.324053870978634 -15.395873368404258 0 0 0 0
444 1 -21.41504084625031 -15.608512434990223 0 0 0 0
482 1 -20.065662706474132 -14.292804762925357 0 0 0 0
445 1 -19.210094745376885 -15.498280160488743 0 0 0 0
446 1 -18.195468714704397 -14.92024080057235 0 0 0 0
447 1 -16.11812516799254 -15.309535305355286 0 0 0 0
448 1 -17.05861219362644 -14.6390357086479 0 0 0 0
449 1 -8.90173638477177 -15.208700315365036 0 0 0 0
450 1 -7.8361120621038065 -14.966765443845132 0 0 0 0
451 1 -6.808123044479557 -14.589222066572997 0 0 0 0
452 1 -3.1050269104126733 -15.627983317164924 0 0 0 0
453 2 1.478940257772012 -14.7594890319257 0 0 0 0
454 1 3.2277554598277254 -15.303041453229948 0 0 0 0
455 1 4.321785382231171 -15.32464384130368 0 0 0 0
456 1 5.2237120193387065 -14.70210867176364 0 0 0 0
457 1 6.596572786620227 -15.473758021530099 0 0 0 0
458 1 6.279486485571028 -14.41661884308222 0 0 0 0
459 1 7.5974344243153205 -15.021242142371007 0 0 0 0
460 1 9.462298453446014 -15.261248694297118 0 0 0 0
461 1 8.617770695483058 -14.620260365661702 0 0 0 0
462 1 10.366106019850951 -14.662807381963564 0 0 0 0
463 1 11.314802030886224 -15.196166382715253 0 0 0 0
464 1 12.276034149018695 -14.727168042687515 0 0 0 0
465 1 13.24996070672214 -14.295251760295978 0 0 0 0
466 1 15.15937471135009 -14.856888755911733 0 0 0 0
467 1 16.71418014661709 -14.449358967052126 0 0 0 0
468 1 16.218558206970897 -15.436786652125237 0 0 0 0
469 1 17.507492015597304 -15.253034749341824 0 0 0 0
470 1 18.49497051265545 -14.523149006165438 0 0 0 0
471 1 19.53564711165077 -14.972871996790694 0 0 0 0
472 1 18.588766849880184 -15.645626116863074 0 0 0 0
473 1 20.566663006360177 -14.49452488274358 0 0 0 0
474 1 23.235405397115603 -14.779432470981046 0 0 0 0
475 1 24.0753941758275 -15.510644554080491 0 0 0 0
476 1 25.100353492962824 -15.058217655813142 0 0 0 0
477 1 27.984087082212834 -14.81544562111539 0 0 0 0
478 1 -26.082103537381247 -12.919007731594423 0 0 0 0
479 1 -24.189512105450472 -13.161916731941927 0 0 0 0
480 1 -22.8301712812225 -13.865314307679641 0 0 0 0
481 1 -21.979962312217488 -13.131810135921139 0 0 0 0
483 1 -21.233777488925305 -14.054339221308624 0 0 0 0
484 1 -18.837584601062495 -13.983151500662052 0 0 0 0
485 1 -16.018977491534585 -14.191774647758834 0 0 0 0
486 1 -16.904740654905577 -13.493779834335339 0 0 0 0
487 1 -14.68942500491136 -13.737300528605635 0 0 0 0
488 1 -15.634902593097443 -13.160448131728602 0 0 0 0
489 1 -13.749854413745288 -13.132298298221013 0 0 0 0
490 1 -12.422072544488389 -14.139254550596256 0 0 0 0
491 1 -12.668446113584494 -12.9608929061552 0 0 0 0
492 1 -11.114446491657574 -13.784842401238267 0 0 0 0
493 1 -7.861506972214209 -13.84789822655058 0 0 0 0
494 2 -2.803441747317039 -13.58785937952453 0 0 0 0
495 2 3.7366058055695857 -13.600865361070621 0 0 0 0
496 1 7.2871882456153445 -13.949127039673007 0 0 0 0
497 1 8.437808097016598 -13.56610285107804 0 0 0 0
498 1 9.643497369675387 -13.837192920208272 0 0 0 0
499 1 10.778552096843251 -13.65103218583512 0 0 0 0
500 1 11.873127961478122 -13.722133198144483 0 0 0 0
501 1 12.764950326913985 -13.092167455169989 0 0 0 0
502 1 14.078599336767141 -13.619064089229985 0 0 0 0
503 1 14.883354433216748 -12.88610837160657 0 0 0 0
504 1 16.627826759763455 -13.339381409745984 0 0 0 0
505 1 17.643223103585672 -13.817893270673238 0 0 0 0
506 1 18.714832286582297 -13.399142494018726 0 0 0 0
507 1 21.068760574004845 -13.482047330790904 0 0 0 0
508 1 22.106025905674883 -13.068954808856763 0 0 0 0
509 1 23.22047296916005 -12.987996044152156 0 0 0 0
510 1 25.46859870010047 -13.986656238389083 0 0 0 0
511 1 25.66400474246129 -12.869482323040614 0 0 0 0
512 1 26.519078567153468 -13.604381571903637 0 0 0 0
513 1 -29.20529696690848 -11.999423429155602 0 0 0 0
514 1 -27.19623633262393 -12.735324162932312 0 0 0 0
515 1 -26.49837654178641 -11.856661181849896 0 0 0 0
516 1 -23.115160364640083 -12.770225607628786 0 0 0 0
517 1 -23.307510057395955 -11.533934268901733 0 0 0 0
518 1 -22.26149427414009 -12.030499249400478 0 0 0 0
519 1 -20.952037875900366 -12.109811978952223 0 0 0 0
520 1 -18.623253658439612 -12.858936381855797 0 0 0 0
521 1 -17.554668127918774 -12.550821978412579 0 0 0 0
522 1 -16.461457523351413 -12.439783591548437 0 0 0 0
523 1 -14.500999723283703 -11.471452475596273 0 0 0 0
524 1 -14.689334461266721 -12.56828182592291 0 0 0 0
525 1 -13.455718931717714 -12.050023941002113 0 0 0 0
526 1 -11.62623423023921 -12.583601587897704 0 0 0 0
527 1 -10.528340234725936 -12.800689858558195 0 0 0 0
528 1 -9.508019506894803 -12.20803587381832 0 0 0 0
529 1 -8.038722127616115 -12.707666727596798 0 0 0 0
530 2 -5.015867868915309 -12.25795164443951 0 0 0 0
531 2 -0.41458002781603476 -12.818789771924218 0 0 0 0
532 2 1.8990996167652419 -11.81858787418247 0 0 0 0
533 1 9.254631185583982 -12.828873118856825 0 0 0 0
534 1 10.400384877233158 -12.611694309811257 0 0 0 0
535 1 11.161930664101337 -11.569765861126166 0 0 0 0
536 1 12.828143362148893 -11.856205052317526 0 0 0 0
537 1 13.725596234801564 -12.594470632072067 0 0 0 0
538 1 13.973042449848043 -11.56213589666543 0 0 0 0
539 1 15.036411905180296 -11.792823756924347 0 0 0 0
540 1 15.924232226434464 -12.479086253087676 0 0 0 0
541 1 17.806490780886534 -11.755228796602976 0 0 0 0
542 1 20.08640483698647 -12.13460245488675 0 0 0 0
543 1 21.208961801901783 -12.37436333087335 0 0 0 0
544 1 22.27815441556502 -11.968724354433308 0 0 0 0
545 1 25.69735441510499 -11.739982952364866 0 0 0 0
546 1 26.796220510190317 -11.619894867928434 0 0 0 0
547 1 27.878219206598022 -11.850355661481647 0 0 0 0
548 1 27.21970716220521 -12.735410290283808 0 0 0 0
549 1 28.387074261797313 -12.837917214254757 0 0 0 0
550 1 29.85312117714238 -12.63939923053004 0 -1 0 0
551 1 -29.21454159070976 -10.86929876544058 0 0 0 0
552 1 -28.23380057384347 -11.421518121198748 0 0 0 0
553 1 -28.09739336112529 -10.311753964045442 0 0 0 0
554 1 -26.77513945567339 -10.748900707839718 0 0 0 0
555 1 -25.76029003380652 -10.22572033179508 0 0 0 0
556 1 -24.31600557653167 -10.929843066302011 0 0 0 0
557 1 -21.28482934667636 -11.043139410920444 0 0 0 0
558 1 -20.160961289564835 -10.736948189565299 0 0 0 0
559 1 -19.134922333745312 -10.11722718114527 0 0 0 0
560 1 -17.556824228572466 -11.406712880791789 0 0 0 0
561 1 -16.657555943032257 -10.561972768710863 0 0 0 0
562 1 -15.328632909859722 -10.692133918008814 0 0 0 0
563 1 -11.850609320211618 -11.108535013145069 0 0 0 0
564 2 -10.134964745845554 -10.137402736236565 0 0 0 0
565 2 -7.450545182699069 -10.453333410406884 0 0 0 0
566 2 -2.3487487613968847 -10.975357204560272 0 0 0 0